<?xml version="1.0" encoding="UTF-8"?>

<!-- generated on 2023-04-22 16:34:00 by Eclipse SUMO GUI Version 1.16.0
<configuration xmlns:xsi="http://www.w3.org/2001/XMLSchema-instance" xsi:noNamespaceSchemaLocation="http://sumo.dlr.de/xsd/sumoConfiguration.xsd">

    <input>
        <net-file value="/Users/huaniaofengyue/Desktop/毕业设计/nanjing-heping.net.xml"/>
        <route-files value="/Users/huaniaofengyue/Desktop/毕业设计/nanjing-heping.rou.xml"/>
    </input>

    <output>
        <write-license value="true"/>
        <fcd-output value="/Users/huaniaofengyue/Desktop/毕业设计/fcd.xml"/>
        <tripinfo-output value="/Users/huaniaofengyue/Desktop/毕业设计/tripinfo.xml"/>
    </output>

    <time>
        <begin value="0"/>
        <end value="3600"/>
    </time>

    <report>
        <duration-log.statistics value="true"/>
    </report>

</configuration>
-->

<tripinfos xmlns:xsi="http://www.w3.org/2001/XMLSchema-instance" xsi:noNamespaceSchemaLocation="http://sumo.dlr.de/xsd/tripinfo_file.xsd">
    <tripinfo id="n1.0" depart="0.00" departLane="-E9_2" departPos="2.10" departSpeed="0.00" departDelay="0.00" arrival="15.00" arrivalLane="E2_2" arrivalPos="63.53" arrivalSpeed="14.72" duration="15.00" routeLength="198.73" waitingTime="0.00" waitingCount="0" stopTime="0.00" timeLoss="0.98" rerouteNo="0" devices="tripinfo_n1.0 fcd_n1.0" vType="Car" speedFactor="1.06" vaporized=""/>
    <tripinfo id="s1.0" depart="0.00" departLane="-E2_2" departPos="2.10" departSpeed="0.00" departDelay="0.00" arrival="15.00" arrivalLane="E9_2" arrivalPos="52.30" arrivalSpeed="15.04" duration="15.00" routeLength="198.26" waitingTime="0.00" waitingCount="0" stopTime="0.00" timeLoss="1.01" rerouteNo="0" devices="tripinfo_s1.0 fcd_s1.0" vType="Car" speedFactor="1.08" vaporized=""/>
    <tripinfo id="s1.1" depart="5.00" departLane="-E2_2" departPos="2.10" departSpeed="0.00" departDelay="0.00" arrival="20.00" arrivalLane="E9_2" arrivalPos="52.30" arrivalSpeed="14.54" duration="15.00" routeLength="198.26" waitingTime="0.00" waitingCount="0" stopTime="0.00" timeLoss="0.97" rerouteNo="0" devices="tripinfo_s1.1 fcd_s1.1" vType="Car" speedFactor="1.05" vaporized=""/>
    <tripinfo id="s3.0" depart="2.00" departLane="-E2_2" departPos="2.10" departSpeed="0.00" departDelay="2.00" arrival="21.00" arrivalLane="E8_2" arrivalPos="50.56" arrivalSpeed="11.54" duration="19.00" routeLength="172.11" waitingTime="0.00" waitingCount="0" stopTime="0.00" timeLoss="2.54" rerouteNo="0" devices="tripinfo_s3.0 fcd_s3.0" vType="Car" speedFactor="0.83" vaporized=""/>
    <tripinfo id="n3.0" depart="2.00" departLane="-E9_2" departPos="2.10" departSpeed="0.00" departDelay="2.00" arrival="22.00" arrivalLane="E10_2" arrivalPos="59.50" arrivalSpeed="14.03" duration="20.00" routeLength="217.66" waitingTime="0.00" waitingCount="0" stopTime="0.00" timeLoss="3.62" rerouteNo="0" devices="tripinfo_n3.0 fcd_n3.0" vType="Car" speedFactor="1.01" vaporized=""/>
    <tripinfo id="e3.0" depart="2.00" departLane="-E8_2" departPos="2.10" departSpeed="0.00" departDelay="2.00" arrival="22.00" arrivalLane="E9_2" arrivalPos="52.30" arrivalSpeed="14.26" duration="20.00" routeLength="194.23" waitingTime="0.00" waitingCount="0" stopTime="0.00" timeLoss="5.57" rerouteNo="0" devices="tripinfo_e3.0 fcd_e3.0" vType="Car" speedFactor="1.03" vaporized=""/>
    <tripinfo id="n1.1" depart="9.00" departLane="-E9_2" departPos="2.10" departSpeed="0.00" departDelay="0.05" arrival="23.00" arrivalLane="E2_2" arrivalPos="63.53" arrivalSpeed="15.60" duration="14.00" routeLength="198.73" waitingTime="0.00" waitingCount="0" stopTime="0.00" timeLoss="1.08" rerouteNo="0" devices="tripinfo_n1.1 fcd_n1.1" vType="Car" speedFactor="1.12" vaporized=""/>
    <tripinfo id="s1.2" depart="10.00" departLane="-E2_2" departPos="2.10" departSpeed="0.00" departDelay="0.00" arrival="26.00" arrivalLane="E9_2" arrivalPos="52.30" arrivalSpeed="13.77" duration="16.00" routeLength="198.26" waitingTime="0.00" waitingCount="0" stopTime="0.00" timeLoss="0.91" rerouteNo="0" devices="tripinfo_s1.2 fcd_s1.2" vType="Car" speedFactor="0.99" vaporized=""/>
    <tripinfo id="s1.3" depart="15.00" departLane="-E2_2" departPos="2.10" departSpeed="0.00" departDelay="0.00" arrival="31.00" arrivalLane="E9_2" arrivalPos="52.30" arrivalSpeed="13.54" duration="16.00" routeLength="198.26" waitingTime="0.00" waitingCount="0" stopTime="0.00" timeLoss="0.89" rerouteNo="0" devices="tripinfo_s1.3 fcd_s1.3" vType="Car" speedFactor="0.97" vaporized=""/>
    <tripinfo id="n3.1" depart="14.00" departLane="-E9_2" departPos="2.10" departSpeed="0.00" departDelay="0.05" arrival="34.00" arrivalLane="E10_2" arrivalPos="59.50" arrivalSpeed="14.03" duration="20.00" routeLength="217.66" waitingTime="0.00" waitingCount="0" stopTime="0.00" timeLoss="3.62" rerouteNo="0" devices="tripinfo_n3.1 fcd_n3.1" vType="Car" speedFactor="1.01" vaporized=""/>
    <tripinfo id="n1.2" depart="18.00" departLane="-E9_2" departPos="2.10" departSpeed="0.00" departDelay="0.09" arrival="37.00" arrivalLane="E2_2" arrivalPos="63.53" arrivalSpeed="11.47" duration="19.00" routeLength="198.73" waitingTime="0.00" waitingCount="0" stopTime="0.00" timeLoss="0.69" rerouteNo="0" devices="tripinfo_n1.2 fcd_n1.2" vType="Car" speedFactor="0.83" vaporized=""/>
    <tripinfo id="s1.4" depart="20.00" departLane="-E2_2" departPos="2.10" departSpeed="0.00" departDelay="0.00" arrival="38.00" arrivalLane="E9_2" arrivalPos="52.30" arrivalSpeed="12.12" duration="18.00" routeLength="198.26" waitingTime="0.00" waitingCount="0" stopTime="0.00" timeLoss="0.76" rerouteNo="0" devices="tripinfo_s1.4 fcd_s1.4" vType="Car" speedFactor="0.87" vaporized=""/>
    <tripinfo id="s1.5" depart="25.00" departLane="-E2_2" departPos="2.10" departSpeed="0.00" departDelay="0.00" arrival="41.00" arrivalLane="E9_2" arrivalPos="52.30" arrivalSpeed="13.96" duration="16.00" routeLength="198.26" waitingTime="0.00" waitingCount="0" stopTime="0.00" timeLoss="0.93" rerouteNo="0" devices="tripinfo_s1.5 fcd_s1.5" vType="Car" speedFactor="1.01" vaporized=""/>
    <tripinfo id="n1.3" depart="27.00" departLane="-E9_2" departPos="2.10" departSpeed="0.00" departDelay="0.14" arrival="41.00" arrivalLane="E2_2" arrivalPos="63.53" arrivalSpeed="16.28" duration="14.00" routeLength="198.73" waitingTime="0.00" waitingCount="0" stopTime="0.00" timeLoss="1.16" rerouteNo="0" devices="tripinfo_n1.3 fcd_n1.3" vType="Car" speedFactor="1.17" vaporized=""/>
    <tripinfo id="s1.6" depart="30.00" departLane="-E2_2" departPos="2.10" departSpeed="0.00" departDelay="0.00" arrival="45.00" arrivalLane="E9_2" arrivalPos="52.30" arrivalSpeed="14.16" duration="15.00" routeLength="198.26" waitingTime="0.00" waitingCount="0" stopTime="0.00" timeLoss="0.94" rerouteNo="0" devices="tripinfo_s1.6 fcd_s1.6" vType="Car" speedFactor="1.02" vaporized=""/>
    <tripinfo id="n3.2" depart="28.00" departLane="-E9_2" departPos="2.10" departSpeed="0.00" departDelay="0.09" arrival="48.00" arrivalLane="E10_2" arrivalPos="59.50" arrivalSpeed="13.82" duration="20.00" routeLength="217.66" waitingTime="0.00" waitingCount="0" stopTime="0.00" timeLoss="3.51" rerouteNo="0" devices="tripinfo_n3.2 fcd_n3.2" vType="Car" speedFactor="0.99" vaporized=""/>
    <tripinfo id="s1.7" depart="35.00" departLane="-E2_2" departPos="2.10" departSpeed="0.00" departDelay="0.00" arrival="50.00" arrivalLane="E9_2" arrivalPos="52.30" arrivalSpeed="14.31" duration="15.00" routeLength="198.26" waitingTime="0.00" waitingCount="0" stopTime="0.00" timeLoss="0.95" rerouteNo="0" devices="tripinfo_s1.7 fcd_s1.7" vType="Car" speedFactor="1.03" vaporized=""/>
    <tripinfo id="n2.0" depart="1.00" departLane="-E9_2" departPos="2.10" departSpeed="0.00" departDelay="1.00" arrival="55.00" arrivalLane="E8_3" arrivalPos="50.56" arrivalSpeed="13.03" duration="54.00" routeLength="210.23" waitingTime="33.00" waitingCount="1" stopTime="0.00" timeLoss="36.68" rerouteNo="0" devices="tripinfo_n2.0 fcd_n2.0" vType="Car" speedFactor="0.94" vaporized=""/>
    <tripinfo id="s2.0" depart="1.00" departLane="-E2_2" departPos="2.10" departSpeed="0.00" departDelay="1.00" arrival="56.00" arrivalLane="E10_3" arrivalPos="59.50" arrivalSpeed="14.31" duration="55.00" routeLength="206.78" waitingTime="34.00" waitingCount="1" stopTime="0.00" timeLoss="39.15" rerouteNo="0" devices="tripinfo_s2.0 fcd_s2.0" vType="Car" speedFactor="1.03" vaporized=""/>
    <tripinfo id="n2.1" depart="12.00" departLane="-E9_2" departPos="2.10" departSpeed="0.00" departDelay="0.68" arrival="56.00" arrivalLane="E8_3" arrivalPos="50.56" arrivalSpeed="13.08" duration="44.00" routeLength="210.23" waitingTime="22.00" waitingCount="1" stopTime="0.00" timeLoss="27.17" rerouteNo="0" devices="tripinfo_n2.1 fcd_n2.1" vType="Car" speedFactor="0.94" vaporized=""/>
    <tripinfo id="e3.1" depart="38.00" departLane="-E8_2" departPos="2.10" departSpeed="0.00" departDelay="2.00" arrival="56.00" arrivalLane="E9_2" arrivalPos="52.30" arrivalSpeed="15.11" duration="18.00" routeLength="194.23" waitingTime="0.00" waitingCount="0" stopTime="0.00" timeLoss="3.92" rerouteNo="0" devices="tripinfo_e3.1 fcd_e3.1" vType="Car" speedFactor="1.09" vaporized=""/>
    <tripinfo id="n2.2" depart="23.00" departLane="-E9_2" departPos="2.10" departSpeed="0.00" departDelay="0.36" arrival="57.00" arrivalLane="E8_3" arrivalPos="50.56" arrivalSpeed="15.72" duration="34.00" routeLength="210.23" waitingTime="13.00" waitingCount="1" stopTime="0.00" timeLoss="19.97" rerouteNo="0" devices="tripinfo_n2.2 fcd_n2.2" vType="Car" speedFactor="1.13" vaporized=""/>
    <tripinfo id="s2.1" depart="12.00" departLane="-E2_2" departPos="2.10" departSpeed="0.00" departDelay="0.24" arrival="58.00" arrivalLane="E10_3" arrivalPos="59.50" arrivalSpeed="13.00" duration="46.00" routeLength="206.78" waitingTime="23.00" waitingCount="1" stopTime="0.00" timeLoss="28.98" rerouteNo="0" devices="tripinfo_s2.1 fcd_s2.1" vType="Car" speedFactor="0.94" vaporized=""/>
    <tripinfo id="s2.2" depart="24.00" departLane="-E2_2" departPos="2.10" departSpeed="0.00" departDelay="0.47" arrival="59.00" arrivalLane="E10_3" arrivalPos="59.50" arrivalSpeed="12.94" duration="35.00" routeLength="206.78" waitingTime="13.00" waitingCount="1" stopTime="0.00" timeLoss="18.30" rerouteNo="0" devices="tripinfo_s2.2 fcd_s2.2" vType="Car" speedFactor="0.93" vaporized=""/>
    <tripinfo id="n2.3" depart="34.00" departLane="-E9_2" departPos="2.10" departSpeed="0.00" departDelay="0.04" arrival="59.00" arrivalLane="E8_3" arrivalPos="50.56" arrivalSpeed="12.51" duration="25.00" routeLength="210.23" waitingTime="3.00" waitingCount="1" stopTime="0.00" timeLoss="7.50" rerouteNo="0" devices="tripinfo_n2.3 fcd_n2.3" vType="Car" speedFactor="0.90" vaporized=""/>
    <tripinfo id="s2.3" depart="36.00" departLane="-E2_2" departPos="2.10" departSpeed="0.00" departDelay="0.71" arrival="61.00" arrivalLane="E10_3" arrivalPos="59.50" arrivalSpeed="15.17" duration="25.00" routeLength="206.78" waitingTime="2.00" waitingCount="1" stopTime="0.00" timeLoss="9.90" rerouteNo="0" devices="tripinfo_s2.3 fcd_s2.3" vType="Car" speedFactor="1.09" vaporized=""/>
    <tripinfo id="n2.4" depart="46.00" departLane="-E9_2" departPos="2.10" departSpeed="0.00" departDelay="0.72" arrival="63.00" arrivalLane="E8_3" arrivalPos="50.56" arrivalSpeed="14.12" duration="17.00" routeLength="210.23" waitingTime="0.00" waitingCount="0" stopTime="0.00" timeLoss="1.57" rerouteNo="0" devices="tripinfo_n2.4 fcd_n2.4" vType="Car" speedFactor="1.02" vaporized=""/>
    <tripinfo id="n3.3" depart="42.00" departLane="-E9_2" departPos="2.10" departSpeed="0.00" departDelay="0.14" arrival="64.00" arrivalLane="E10_2" arrivalPos="59.50" arrivalSpeed="12.18" duration="22.00" routeLength="217.66" waitingTime="0.00" waitingCount="0" stopTime="0.00" timeLoss="2.80" rerouteNo="0" devices="tripinfo_n3.3 fcd_n3.3" vType="Car" speedFactor="0.88" vaporized=""/>
    <tripinfo id="s2.4" depart="48.00" departLane="-E2_2" departPos="2.10" departSpeed="0.00" departDelay="0.94" arrival="65.00" arrivalLane="E10_3" arrivalPos="59.50" arrivalSpeed="15.22" duration="17.00" routeLength="206.78" waitingTime="0.00" waitingCount="0" stopTime="0.00" timeLoss="2.30" rerouteNo="0" devices="tripinfo_s2.4 fcd_s2.4" vType="Car" speedFactor="1.10" vaporized=""/>
    <tripinfo id="s3.1" depart="51.00" departLane="-E2_2" departPos="2.10" departSpeed="0.00" departDelay="1.00" arrival="68.00" arrivalLane="E8_2" arrivalPos="50.56" arrivalSpeed="14.22" duration="17.00" routeLength="172.11" waitingTime="0.00" waitingCount="0" stopTime="0.00" timeLoss="3.64" rerouteNo="0" devices="tripinfo_s3.1 fcd_s3.1" vType="Car" speedFactor="1.02" vaporized=""/>
    <tripinfo id="n2.5" depart="57.00" departLane="-E9_2" departPos="2.10" departSpeed="0.00" departDelay="0.40" arrival="76.00" arrivalLane="E8_3" arrivalPos="50.56" arrivalSpeed="13.02" duration="19.00" routeLength="210.23" waitingTime="0.00" waitingCount="0" stopTime="0.00" timeLoss="1.34" rerouteNo="0" devices="tripinfo_n2.5 fcd_n2.5" vType="Car" speedFactor="0.94" vaporized=""/>
    <tripinfo id="s2.5" depart="59.00" departLane="-E2_2" departPos="2.10" departSpeed="0.00" departDelay="0.18" arrival="79.00" arrivalLane="E10_3" arrivalPos="59.50" arrivalSpeed="12.26" duration="20.00" routeLength="206.78" waitingTime="0.00" waitingCount="0" stopTime="0.00" timeLoss="1.79" rerouteNo="0" devices="tripinfo_s2.5 fcd_s2.5" vType="Car" speedFactor="0.88" vaporized=""/>
    <tripinfo id="w1.0" depart="0.00" departLane="-E10_2" departPos="2.10" departSpeed="0.00" departDelay="0.00" arrival="87.00" arrivalLane="E8_2" arrivalPos="50.56" arrivalSpeed="14.53" duration="87.00" routeLength="230.99" waitingTime="66.00" waitingCount="1" stopTime="0.00" timeLoss="70.62" rerouteNo="0" devices="tripinfo_w1.0 fcd_w1.0" vType="Car" speedFactor="1.05" vaporized=""/>
    <tripinfo id="w3.0" depart="2.00" departLane="-E10_2" departPos="2.10" departSpeed="0.00" departDelay="2.00" arrival="87.00" arrivalLane="E2_2" arrivalPos="63.53" arrivalSpeed="13.03" duration="85.00" routeLength="190.93" waitingTime="64.00" waitingCount="1" stopTime="0.00" timeLoss="69.37" rerouteNo="0" devices="tripinfo_w3.0 fcd_w3.0" vType="Car" speedFactor="0.94" vaporized=""/>
    <tripinfo id="w1.1" depart="11.00" departLane="-E10_2" departPos="2.10" departSpeed="0.00" departDelay="0.29" arrival="88.00" arrivalLane="E8_3" arrivalPos="50.56" arrivalSpeed="12.87" duration="77.00" routeLength="230.99" waitingTime="53.00" waitingCount="1" stopTime="0.00" timeLoss="58.54" rerouteNo="0" devices="tripinfo_w1.1 fcd_w1.1" vType="Car" speedFactor="0.93" vaporized=""/>
    <tripinfo id="e1.1" depart="12.00" departLane="-E8_2" departPos="2.10" departSpeed="0.00" departDelay="0.00" arrival="88.00" arrivalLane="E10_3" arrivalPos="59.50" arrivalSpeed="16.09" duration="76.00" routeLength="230.72" waitingTime="55.00" waitingCount="1" stopTime="0.00" timeLoss="60.81" rerouteNo="0" devices="tripinfo_e1.1 fcd_e1.1" vType="Car" speedFactor="1.16" vaporized=""/>
    <tripinfo id="w1.2" depart="22.00" departLane="-E10_2" departPos="2.10" departSpeed="0.00" departDelay="0.57" arrival="89.00" arrivalLane="E8_3" arrivalPos="50.56" arrivalSpeed="13.18" duration="67.00" routeLength="230.99" waitingTime="42.00" waitingCount="1" stopTime="0.00" timeLoss="49.29" rerouteNo="0" devices="tripinfo_w1.2 fcd_w1.2" vType="Car" speedFactor="0.95" vaporized=""/>
    <tripinfo id="e1.0" depart="0.00" departLane="-E8_2" departPos="2.10" departSpeed="0.00" departDelay="0.00" arrival="90.00" arrivalLane="E10_2" arrivalPos="59.50" arrivalSpeed="11.90" duration="90.00" routeLength="230.72" waitingTime="67.00" waitingCount="1" stopTime="0.00" timeLoss="70.54" rerouteNo="0" devices="tripinfo_e1.0 fcd_e1.0" vType="Car" speedFactor="0.86" vaporized=""/>
    <tripinfo id="w3.1" depart="12.00" departLane="-E10_2" departPos="2.10" departSpeed="0.00" departDelay="1.83" arrival="90.00" arrivalLane="E2_2" arrivalPos="63.53" arrivalSpeed="12.20" duration="78.00" routeLength="190.93" waitingTime="55.00" waitingCount="1" stopTime="0.00" timeLoss="60.81" rerouteNo="0" devices="tripinfo_w3.1 fcd_w3.1" vType="Car" speedFactor="0.88" vaporized=""/>
    <tripinfo id="w1.3" depart="33.00" departLane="-E10_2" departPos="2.10" departSpeed="0.00" departDelay="0.86" arrival="90.00" arrivalLane="E8_3" arrivalPos="50.56" arrivalSpeed="15.31" duration="57.00" routeLength="230.99" waitingTime="34.00" waitingCount="1" stopTime="0.00" timeLoss="41.91" rerouteNo="0" devices="tripinfo_w1.3 fcd_w1.3" vType="Car" speedFactor="1.10" vaporized=""/>
    <tripinfo id="e1.3" depart="36.00" departLane="-E8_2" departPos="2.10" departSpeed="0.00" departDelay="0.00" arrival="90.00" arrivalLane="E10_3" arrivalPos="59.50" arrivalSpeed="14.42" duration="54.00" routeLength="230.72" waitingTime="31.00" waitingCount="1" stopTime="0.00" timeLoss="37.33" rerouteNo="0" devices="tripinfo_e1.3 fcd_e1.3" vType="Car" speedFactor="1.04" vaporized=""/>
    <tripinfo id="e1.2" depart="24.00" departLane="-E8_2" departPos="2.10" departSpeed="0.00" departDelay="0.00" arrival="91.00" arrivalLane="E10_2" arrivalPos="59.50" arrivalSpeed="16.37" duration="67.00" routeLength="230.72" waitingTime="44.00" waitingCount="1" stopTime="0.00" timeLoss="52.85" rerouteNo="0" devices="tripinfo_e1.2 fcd_e1.2" vType="Car" speedFactor="1.18" vaporized=""/>
    <tripinfo id="w3.2" depart="21.00" departLane="-E10_2" departPos="2.10" departSpeed="0.00" departDelay="0.66" arrival="92.00" arrivalLane="E2_2" arrivalPos="63.53" arrivalSpeed="12.74" duration="71.00" routeLength="190.93" waitingTime="48.00" waitingCount="1" stopTime="0.00" timeLoss="54.20" rerouteNo="0" devices="tripinfo_w3.2 fcd_w3.2" vType="Car" speedFactor="0.92" vaporized=""/>
    <tripinfo id="e1.5" depart="60.00" departLane="-E8_2" departPos="2.10" departSpeed="0.00" departDelay="0.00" arrival="92.00" arrivalLane="E10_3" arrivalPos="59.50" arrivalSpeed="12.70" duration="32.00" routeLength="230.72" waitingTime="9.00" waitingCount="1" stopTime="0.00" timeLoss="13.78" rerouteNo="0" devices="tripinfo_e1.5 fcd_e1.5" vType="Car" speedFactor="0.91" vaporized=""/>
    <tripinfo id="e3.2" depart="74.00" departLane="-E8_2" departPos="2.10" departSpeed="0.00" departDelay="2.00" arrival="92.00" arrivalLane="E9_2" arrivalPos="52.30" arrivalSpeed="14.12" duration="18.00" routeLength="194.23" waitingTime="0.00" waitingCount="0" stopTime="0.00" timeLoss="3.52" rerouteNo="0" devices="tripinfo_e3.2 fcd_e3.2" vType="Car" speedFactor="1.02" vaporized=""/>
    <tripinfo id="w3.3" depart="31.00" departLane="-E10_2" departPos="2.10" departSpeed="0.00" departDelay="0.49" arrival="93.00" arrivalLane="E2_2" arrivalPos="63.53" arrivalSpeed="13.52" duration="62.00" routeLength="190.93" waitingTime="39.00" waitingCount="1" stopTime="0.00" timeLoss="46.91" rerouteNo="0" devices="tripinfo_w3.3 fcd_w3.3" vType="Car" speedFactor="0.97" vaporized=""/>
    <tripinfo id="w1.4" depart="43.00" departLane="-E10_2" departPos="2.10" departSpeed="0.00" departDelay="0.14" arrival="93.00" arrivalLane="E8_3" arrivalPos="50.56" arrivalSpeed="11.81" duration="50.00" routeLength="230.99" waitingTime="25.00" waitingCount="1" stopTime="0.00" timeLoss="29.83" rerouteNo="0" devices="tripinfo_w1.4 fcd_w1.4" vType="Car" speedFactor="0.85" vaporized=""/>
    <tripinfo id="e1.4" depart="48.00" departLane="-E8_2" departPos="2.10" departSpeed="0.00" departDelay="0.00" arrival="93.00" arrivalLane="E10_2" arrivalPos="59.50" arrivalSpeed="13.83" duration="45.00" routeLength="230.72" waitingTime="21.00" waitingCount="1" stopTime="0.00" timeLoss="27.77" rerouteNo="0" devices="tripinfo_e1.4 fcd_e1.4" vType="Car" speedFactor="1.00" vaporized=""/>
    <tripinfo id="w1.5" depart="54.00" departLane="-E10_2" departPos="2.10" departSpeed="0.00" departDelay="0.43" arrival="94.00" arrivalLane="E8_3" arrivalPos="50.56" arrivalSpeed="15.55" duration="40.00" routeLength="230.99" waitingTime="15.00" waitingCount="1" stopTime="0.00" timeLoss="24.73" rerouteNo="0" devices="tripinfo_w1.5 fcd_w1.5" vType="Car" speedFactor="1.12" vaporized=""/>
    <tripinfo id="e1.6" depart="72.00" departLane="-E8_2" departPos="2.10" departSpeed="0.00" departDelay="0.00" arrival="94.00" arrivalLane="E10_2" arrivalPos="59.50" arrivalSpeed="14.37" duration="22.00" routeLength="230.72" waitingTime="0.00" waitingCount="0" stopTime="0.00" timeLoss="5.70" rerouteNo="0" devices="tripinfo_e1.6 fcd_e1.6" vType="Car" speedFactor="1.03" vaporized=""/>
    <tripinfo id="w1.6" depart="65.00" departLane="-E10_2" departPos="2.10" departSpeed="0.00" departDelay="0.72" arrival="95.00" arrivalLane="E8_3" arrivalPos="50.56" arrivalSpeed="14.66" duration="30.00" routeLength="230.99" waitingTime="6.00" waitingCount="1" stopTime="0.00" timeLoss="14.18" rerouteNo="0" devices="tripinfo_w1.6 fcd_w1.6" vType="Car" speedFactor="1.06" vaporized=""/>
    <tripinfo id="w3.4" depart="41.00" departLane="-E10_2" departPos="2.10" departSpeed="0.00" departDelay="0.32" arrival="96.00" arrivalLane="E2_2" arrivalPos="63.53" arrivalSpeed="12.51" duration="55.00" routeLength="190.93" waitingTime="30.00" waitingCount="1" stopTime="0.00" timeLoss="38.06" rerouteNo="0" devices="tripinfo_w3.4 fcd_w3.4" vType="Car" speedFactor="0.90" vaporized=""/>
    <tripinfo id="w3.5" depart="51.00" departLane="-E10_2" departPos="2.10" departSpeed="0.00" departDelay="0.16" arrival="97.00" arrivalLane="E2_2" arrivalPos="63.53" arrivalSpeed="13.47" duration="46.00" routeLength="190.93" waitingTime="22.00" waitingCount="1" stopTime="0.00" timeLoss="30.96" rerouteNo="0" devices="tripinfo_w3.5 fcd_w3.5" vType="Car" speedFactor="0.97" vaporized=""/>
    <tripinfo id="w1.7" depart="75.00" departLane="-E10_2" departPos="2.10" departSpeed="0.00" departDelay="0.00" arrival="97.00" arrivalLane="E8_3" arrivalPos="50.56" arrivalSpeed="15.94" duration="22.00" routeLength="230.99" waitingTime="0.00" waitingCount="0" stopTime="0.00" timeLoss="6.70" rerouteNo="0" devices="tripinfo_w1.7 fcd_w1.7" vType="Car" speedFactor="1.15" vaporized=""/>
    <tripinfo id="w3.6" depart="62.00" departLane="-E10_2" departPos="2.10" departSpeed="0.00" departDelay="0.99" arrival="99.00" arrivalLane="E2_2" arrivalPos="63.53" arrivalSpeed="14.20" duration="37.00" routeLength="190.93" waitingTime="12.00" waitingCount="1" stopTime="0.00" timeLoss="22.82" rerouteNo="0" devices="tripinfo_w3.6 fcd_w3.6" vType="Car" speedFactor="1.02" vaporized=""/>
    <tripinfo id="w3.7" depart="72.00" departLane="-E10_2" departPos="2.10" departSpeed="0.00" departDelay="0.82" arrival="101.00" arrivalLane="E2_2" arrivalPos="63.53" arrivalSpeed="15.10" duration="29.00" routeLength="190.93" waitingTime="4.00" waitingCount="1" stopTime="0.00" timeLoss="15.48" rerouteNo="0" devices="tripinfo_w3.7 fcd_w3.7" vType="Car" speedFactor="1.09" vaporized=""/>
    <tripinfo id="w3.8" depart="82.00" departLane="-E10_2" departPos="2.10" departSpeed="0.00" departDelay="0.65" arrival="103.00" arrivalLane="E2_2" arrivalPos="63.53" arrivalSpeed="14.20" duration="21.00" routeLength="190.93" waitingTime="0.00" waitingCount="0" stopTime="0.00" timeLoss="7.08" rerouteNo="0" devices="tripinfo_w3.8 fcd_w3.8" vType="Car" speedFactor="1.02" vaporized=""/>
    <tripinfo id="e1.7" depart="84.00" departLane="-E8_2" departPos="2.10" departSpeed="0.00" departDelay="0.00" arrival="105.00" arrivalLane="E10_2" arrivalPos="59.50" arrivalSpeed="11.58" duration="21.00" routeLength="230.72" waitingTime="0.00" waitingCount="0" stopTime="0.00" timeLoss="0.71" rerouteNo="0" devices="tripinfo_e1.7 fcd_e1.7" vType="Car" speedFactor="0.83" vaporized=""/>
    <tripinfo id="w1.8" depart="86.00" departLane="-E10_2" departPos="2.10" departSpeed="0.00" departDelay="0.29" arrival="107.00" arrivalLane="E8_2" arrivalPos="50.56" arrivalSpeed="14.68" duration="21.00" routeLength="230.99" waitingTime="0.00" waitingCount="0" stopTime="0.00" timeLoss="4.52" rerouteNo="0" devices="tripinfo_w1.8 fcd_w1.8" vType="Car" speedFactor="1.06" vaporized=""/>
    <tripinfo id="w3.9" depart="92.00" departLane="-E10_2" departPos="2.10" departSpeed="0.00" departDelay="0.48" arrival="110.00" arrivalLane="E2_2" arrivalPos="63.53" arrivalSpeed="15.24" duration="18.00" routeLength="190.93" waitingTime="0.00" waitingCount="0" stopTime="0.00" timeLoss="4.55" rerouteNo="0" devices="tripinfo_w3.9 fcd_w3.9" vType="Car" speedFactor="1.10" vaporized=""/>
    <tripinfo id="w1.9" depart="97.00" departLane="-E10_2" departPos="2.10" departSpeed="0.00" departDelay="0.57" arrival="114.00" arrivalLane="E8_2" arrivalPos="50.56" arrivalSpeed="14.90" duration="17.00" routeLength="230.99" waitingTime="0.00" waitingCount="0" stopTime="0.00" timeLoss="1.49" rerouteNo="0" devices="tripinfo_w1.9 fcd_w1.9" vType="Car" speedFactor="1.07" vaporized=""/>
    <tripinfo id="e1.8" depart="96.00" departLane="-E8_2" departPos="2.10" departSpeed="0.00" departDelay="0.00" arrival="115.00" arrivalLane="E10_2" arrivalPos="59.50" arrivalSpeed="13.23" duration="19.00" routeLength="230.72" waitingTime="0.00" waitingCount="0" stopTime="0.00" timeLoss="0.87" rerouteNo="0" devices="tripinfo_e1.8 fcd_e1.8" vType="Car" speedFactor="0.95" vaporized=""/>
    <tripinfo id="s3.2" depart="101.00" departLane="-E2_2" departPos="2.10" departSpeed="0.00" departDelay="1.00" arrival="118.00" arrivalLane="E8_2" arrivalPos="50.56" arrivalSpeed="13.33" duration="17.00" routeLength="172.11" waitingTime="0.00" waitingCount="0" stopTime="0.00" timeLoss="3.30" rerouteNo="0" devices="tripinfo_s3.2 fcd_s3.2" vType="Car" speedFactor="0.96" vaporized=""/>
    <tripinfo id="w3.10" depart="102.00" departLane="-E10_2" departPos="2.10" departSpeed="0.00" departDelay="0.31" arrival="122.00" arrivalLane="E2_2" arrivalPos="63.53" arrivalSpeed="12.03" duration="20.00" routeLength="190.93" waitingTime="0.00" waitingCount="0" stopTime="0.00" timeLoss="2.73" rerouteNo="0" devices="tripinfo_w3.10 fcd_w3.10" vType="Car" speedFactor="0.87" vaporized=""/>
    <tripinfo id="e1.9" depart="108.00" departLane="-E8_2" departPos="2.10" departSpeed="0.00" departDelay="0.00" arrival="124.00" arrivalLane="E10_2" arrivalPos="59.50" arrivalSpeed="16.35" duration="16.00" routeLength="230.72" waitingTime="0.00" waitingCount="0" stopTime="0.00" timeLoss="1.17" rerouteNo="0" devices="tripinfo_e1.9 fcd_e1.9" vType="Car" speedFactor="1.18" vaporized=""/>
    <tripinfo id="w1.10" depart="108.00" departLane="-E10_2" departPos="2.10" departSpeed="0.00" departDelay="0.86" arrival="127.00" arrivalLane="E8_2" arrivalPos="50.56" arrivalSpeed="12.81" duration="19.00" routeLength="230.99" waitingTime="0.00" waitingCount="0" stopTime="0.00" timeLoss="0.83" rerouteNo="0" devices="tripinfo_w1.10 fcd_w1.10" vType="Car" speedFactor="0.92" vaporized=""/>
    <tripinfo id="e3.3" depart="110.00" departLane="-E8_2" departPos="2.10" departSpeed="0.00" departDelay="2.00" arrival="128.00" arrivalLane="E9_2" arrivalPos="52.30" arrivalSpeed="13.77" duration="18.00" routeLength="194.23" waitingTime="0.00" waitingCount="0" stopTime="0.00" timeLoss="3.37" rerouteNo="0" devices="tripinfo_e3.3 fcd_e3.3" vType="Car" speedFactor="0.99" vaporized=""/>
    <tripinfo id="e2.0" depart="1.00" departLane="-E8_2" departPos="2.10" departSpeed="0.00" departDelay="1.00" arrival="129.00" arrivalLane="E2_4" arrivalPos="63.53" arrivalSpeed="15.15" duration="128.00" routeLength="186.34" waitingTime="110.00" waitingCount="1" stopTime="0.00" timeLoss="114.31" rerouteNo="0" devices="tripinfo_e2.0 fcd_e2.0" vType="Car" speedFactor="1.09" vaporized=""/>
    <tripinfo id="e2.1" depart="13.00" departLane="-E8_2" departPos="2.10" departSpeed="0.00" departDelay="1.00" arrival="130.00" arrivalLane="E2_4" arrivalPos="63.53" arrivalSpeed="14.14" duration="117.00" routeLength="186.34" waitingTime="98.00" waitingCount="1" stopTime="0.00" timeLoss="103.22" rerouteNo="0" devices="tripinfo_e2.1 fcd_e2.1" vType="Car" speedFactor="1.02" vaporized=""/>
    <tripinfo id="w3.11" depart="112.00" departLane="-E10_2" departPos="2.10" departSpeed="0.00" departDelay="0.14" arrival="130.00" arrivalLane="E2_2" arrivalPos="63.53" arrivalSpeed="14.33" duration="18.00" routeLength="190.93" waitingTime="0.00" waitingCount="0" stopTime="0.00" timeLoss="4.07" rerouteNo="0" devices="tripinfo_w3.11 fcd_w3.11" vType="Car" speedFactor="1.03" vaporized=""/>
    <tripinfo id="w2.0" depart="1.00" departLane="-E10_2" departPos="2.10" departSpeed="0.00" departDelay="1.00" arrival="132.00" arrivalLane="E9_3" arrivalPos="52.30" arrivalSpeed="12.31" duration="131.00" routeLength="235.55" waitingTime="107.00" waitingCount="1" stopTime="0.00" timeLoss="111.05" rerouteNo="0" devices="tripinfo_w2.0 fcd_w2.0" vType="Car" speedFactor="0.89" vaporized=""/>
    <tripinfo id="w2.1" depart="16.00" departLane="-E10_2" departPos="2.10" departSpeed="0.00" departDelay="0.21" arrival="132.00" arrivalLane="E9_4" arrivalPos="52.30" arrivalSpeed="12.36" duration="116.00" routeLength="231.23" waitingTime="92.00" waitingCount="1" stopTime="0.00" timeLoss="96.05" rerouteNo="0" devices="tripinfo_w2.1 fcd_w2.1" vType="Car" speedFactor="0.89" vaporized=""/>
    <tripinfo id="e2.2" depart="25.00" departLane="-E8_2" departPos="2.10" departSpeed="0.00" departDelay="1.00" arrival="132.00" arrivalLane="E2_4" arrivalPos="63.53" arrivalSpeed="16.03" duration="107.00" routeLength="186.34" waitingTime="87.00" waitingCount="1" stopTime="0.00" timeLoss="93.89" rerouteNo="0" devices="tripinfo_e2.2 fcd_e2.2" vType="Car" speedFactor="1.15" vaporized=""/>
    <tripinfo id="w2.2" depart="32.00" departLane="-E10_2" departPos="2.10" departSpeed="0.00" departDelay="0.42" arrival="133.00" arrivalLane="E9_3" arrivalPos="52.30" arrivalSpeed="16.39" duration="101.00" routeLength="235.55" waitingTime="77.00" waitingCount="1" stopTime="0.00" timeLoss="85.99" rerouteNo="0" devices="tripinfo_w2.2 fcd_w2.2" vType="Car" speedFactor="1.18" vaporized=""/>